MODEL 1
REMARK VINA RESULT:      -4.7      0.000      0.000
REMARK  Name = 4jpy_ligand
REMARK  4 active torsions:
REMARK  status: ('A' for Active; 'I' for Inactive)
REMARK    1  A    between atoms: N_1  and  CA_2
REMARK    2  A    between atoms: CA_2  and  C_3
REMARK    3  A    between atoms: CA_2  and  CB_5
REMARK    4  A    between atoms: CB_5  and  CG_6
REMARK                            x       y       z     vdW  Elec       q    Type
REMARK                         _______ _______ _______ _____ _____    ______ ____
ROOT
ATOM      1  CA  PHE A   1      -0.704  -3.244  -2.718  0.00  0.00    +0.155 C 
ENDROOT
BRANCH   1   2
ATOM      2  N   PHE A   1      -1.386  -4.498  -2.281  0.00  0.00    +0.445 N 
ATOM      3  H1  PHE A   1      -1.914  -4.319  -1.442  0.00  0.00    +0.147 HD
ATOM      4  H2  PHE A   1      -0.696  -5.210  -2.099  0.00  0.00    +0.147 HD
ATOM      5  H3  PHE A   1      -2.008  -4.813  -3.010  0.00  0.00    +0.147 HD
ENDBRANCH   1   2
BRANCH   1   6
ATOM      6  C   PHE A   1      -1.721  -2.139  -2.959  0.00  0.00    +0.031 C 
ATOM      7  O   PHE A   1      -1.845  -1.601  -4.052  0.00  0.00    -0.568 OA
ATOM      8  OXT PHE A   1      -2.435  -1.748  -2.030  0.00  0.00    -0.568 OA
ENDBRANCH   1   6
BRANCH   1   9
ATOM      9  CB  PHE A   1       0.172  -3.495  -3.958  0.00  0.00    +0.150 C 
BRANCH   9  10
ATOM     10  CG  PHE A   1       1.660  -3.355  -3.687  0.00  0.00    -0.068 A 
ATOM     11  CD1 PHE A   1       2.441  -2.438  -4.421  0.00  0.00    +0.002 A 
ATOM     12  CD2 PHE A   1       2.277  -4.102  -2.700  0.00  0.00    +0.002 A 
ATOM     13  CE1 PHE A   1       3.805  -2.299  -4.171  0.00  0.00    -0.006 A 
ATOM     14  CE2 PHE A   1       3.652  -3.967  -2.453  0.00  0.00    -0.006 A 
ATOM     15  CZ  PHE A   1       4.416  -3.069  -3.189  0.00  0.00    -0.012 A 
ENDBRANCH   9  10
ENDBRANCH   1   9
TORSDOF 4
ENDMDL
MODEL 2
REMARK VINA RESULT:      -4.7      0.032      1.386
REMARK  Name = 4jpy_ligand
REMARK  4 active torsions:
REMARK  status: ('A' for Active; 'I' for Inactive)
REMARK    1  A    between atoms: N_1  and  CA_2
REMARK    2  A    between atoms: CA_2  and  C_3
REMARK    3  A    between atoms: CA_2  and  CB_5
REMARK    4  A    between atoms: CB_5  and  CG_6
REMARK                            x       y       z     vdW  Elec       q    Type
REMARK                         _______ _______ _______ _____ _____    ______ ____
ROOT
ATOM      1  CA  PHE A   1      -0.706  -3.218  -2.706  0.00  0.00    +0.155 C 
ENDROOT
BRANCH   1   2
ATOM      2  N   PHE A   1      -1.370  -4.476  -2.252  0.00  0.00    +0.445 N 
ATOM      3  H1  PHE A   1      -2.322  -4.278  -1.989  0.00  0.00    +0.147 HD
ATOM      4  H2  PHE A   1      -0.873  -4.851  -1.459  0.00  0.00    +0.147 HD
ATOM      5  H3  PHE A   1      -1.361  -5.150  -3.002  0.00  0.00    +0.147 HD
ENDBRANCH   1   2
BRANCH   1   6
ATOM      6  C   PHE A   1      -1.738  -2.128  -2.951  0.00  0.00    +0.031 C 
ATOM      7  O   PHE A   1      -1.878  -1.606  -4.050  0.00  0.00    -0.568 OA
ATOM      8  OXT PHE A   1      -2.448  -1.734  -2.021  0.00  0.00    -0.568 OA
ENDBRANCH   1   6
BRANCH   1   9
ATOM      9  CB  PHE A   1       0.165  -3.471  -3.949  0.00  0.00    +0.150 C 
BRANCH   9  10
ATOM     10  CG  PHE A   1       1.653  -3.310  -3.690  0.00  0.00    -0.068 A 
ATOM     11  CD1 PHE A   1       2.296  -4.079  -2.697  0.00  0.00    +0.002 A 
ATOM     12  CD2 PHE A   1       2.414  -2.428  -4.435  0.00  0.00    +0.002 A 
ATOM     13  CE1 PHE A   1       3.663  -3.942  -2.460  0.00  0.00    -0.006 A 
ATOM     14  CE2 PHE A   1       3.788  -2.286  -4.192  0.00  0.00    -0.006 A 
ATOM     15  CZ  PHE A   1       4.412  -3.039  -3.204  0.00  0.00    -0.012 A 
ENDBRANCH   9  10
ENDBRANCH   1   9
TORSDOF 4
ENDMDL
MODEL 3
REMARK VINA RESULT:      -4.4      1.699      2.340
REMARK  Name = 4jpy_ligand
REMARK  4 active torsions:
REMARK  status: ('A' for Active; 'I' for Inactive)
REMARK    1  A    between atoms: N_1  and  CA_2
REMARK    2  A    between atoms: CA_2  and  C_3
REMARK    3  A    between atoms: CA_2  and  CB_5
REMARK    4  A    between atoms: CB_5  and  CG_6
REMARK                            x       y       z     vdW  Elec       q    Type
REMARK                         _______ _______ _______ _____ _____    ______ ____
ROOT
ATOM      1  CA  PHE A   1      -0.806  -3.002  -3.660  0.00  0.00    +0.155 C 
ENDROOT
BRANCH   1   2
ATOM      2  N   PHE A   1       0.102  -2.363  -4.658  0.00  0.00    +0.445 N 
ATOM      3  H1  PHE A   1       0.953  -2.897  -4.728  0.00  0.00    +0.147 HD
ATOM      4  H2  PHE A   1       0.318  -1.423  -4.363  0.00  0.00    +0.147 HD
ATOM      5  H3  PHE A   1      -0.353  -2.335  -5.557  0.00  0.00    +0.147 HD
ENDBRANCH   1   2
BRANCH   1   6
ATOM      6  C   PHE A   1      -1.797  -1.985  -3.112  0.00  0.00    +0.031 C 
ATOM      7  O   PHE A   1      -2.186  -2.022  -1.952  0.00  0.00    -0.568 OA
ATOM      8  OXT PHE A   1      -2.246  -1.105  -3.852  0.00  0.00    -0.568 OA
ENDBRANCH   1   6
BRANCH   1   9
ATOM      9  CB  PHE A   1      -0.002  -3.679  -2.537  0.00  0.00    +0.150 C 
BRANCH   9  10
ATOM     10  CG  PHE A   1       1.233  -4.412  -3.033  0.00  0.00    -0.068 A 
ATOM     11  CD1 PHE A   1       1.109  -5.581  -3.813  0.00  0.00    +0.002 A 
ATOM     12  CD2 PHE A   1       2.501  -3.938  -2.753  0.00  0.00    +0.002 A 
ATOM     13  CE1 PHE A   1       2.238  -6.252  -4.278  0.00  0.00    -0.006 A 
ATOM     14  CE2 PHE A   1       3.638  -4.618  -3.216  0.00  0.00    -0.006 A 
ATOM     15  CZ  PHE A   1       3.507  -5.775  -3.975  0.00  0.00    -0.012 A 
ENDBRANCH   9  10
ENDBRANCH   1   9
TORSDOF 4
ENDMDL
MODEL 4
REMARK VINA RESULT:      -4.4      1.400      1.725
REMARK  Name = 4jpy_ligand
REMARK  4 active torsions:
REMARK  status: ('A' for Active; 'I' for Inactive)
REMARK    1  A    between atoms: N_1  and  CA_2
REMARK    2  A    between atoms: CA_2  and  C_3
REMARK    3  A    between atoms: CA_2  and  CB_5
REMARK    4  A    between atoms: CB_5  and  CG_6
REMARK                            x       y       z     vdW  Elec       q    Type
REMARK                         _______ _______ _______ _____ _____    ______ ____
ROOT
ATOM      1  CA  PHE A   1      -1.622  -2.810  -4.285  0.00  0.00    +0.155 C 
ENDROOT
BRANCH   1   2
ATOM      2  N   PHE A   1      -2.584  -3.187  -5.363  0.00  0.00    +0.445 N 
ATOM      3  H1  PHE A   1      -2.169  -3.889  -5.954  0.00  0.00    +0.147 HD
ATOM      4  H2  PHE A   1      -2.807  -2.373  -5.914  0.00  0.00    +0.147 HD
ATOM      5  H3  PHE A   1      -3.427  -3.552  -4.948  0.00  0.00    +0.147 HD
ENDBRANCH   1   2
BRANCH   1   6
ATOM      6  C   PHE A   1      -2.265  -1.832  -3.313  0.00  0.00    +0.031 C 
ATOM      7  O   PHE A   1      -1.989  -1.831  -2.120  0.00  0.00    -0.568 OA
ATOM      8  OXT PHE A   1      -3.106  -1.025  -3.720  0.00  0.00    -0.568 OA
ENDBRANCH   1   6
BRANCH   1   9
ATOM      9  CB  PHE A   1      -0.318  -2.249  -4.881  0.00  0.00    +0.150 C 
BRANCH   9  10
ATOM     10  CG  PHE A   1       0.934  -2.784  -4.209  0.00  0.00    -0.068 A 
ATOM     11  CD1 PHE A   1       2.198  -2.229  -4.499  0.00  0.00    +0.002 A 
ATOM     12  CD2 PHE A   1       0.863  -3.807  -3.281  0.00  0.00    +0.002 A 
ATOM     13  CE1 PHE A   1       3.350  -2.709  -3.878  0.00  0.00    -0.006 A 
ATOM     14  CE2 PHE A   1       2.023  -4.296  -2.662  0.00  0.00    -0.006 A 
ATOM     15  CZ  PHE A   1       3.266  -3.750  -2.962  0.00  0.00    -0.012 A 
ENDBRANCH   9  10
ENDBRANCH   1   9
TORSDOF 4
ENDMDL
MODEL 5
REMARK VINA RESULT:      -3.9      1.991      2.948
REMARK  Name = 4jpy_ligand
REMARK  4 active torsions:
REMARK  status: ('A' for Active; 'I' for Inactive)
REMARK    1  A    between atoms: N_1  and  CA_2
REMARK    2  A    between atoms: CA_2  and  C_3
REMARK    3  A    between atoms: CA_2  and  CB_5
REMARK    4  A    between atoms: CB_5  and  CG_6
REMARK                            x       y       z     vdW  Elec       q    Type
REMARK                         _______ _______ _______ _____ _____    ______ ____
ROOT
ATOM      1  CA  PHE A   1      -1.534  -3.224  -4.004  0.00  0.00    +0.155 C 
ENDROOT
BRANCH   1   2
ATOM      2  N   PHE A   1      -2.792  -3.872  -4.482  0.00  0.00    +0.445 N 
ATOM      3  H1  PHE A   1      -2.992  -4.678  -3.912  0.00  0.00    +0.147 HD
ATOM      4  H2  PHE A   1      -2.680  -4.158  -5.442  0.00  0.00    +0.147 HD
ATOM      5  H3  PHE A   1      -3.554  -3.215  -4.415  0.00  0.00    +0.147 HD
ENDBRANCH   1   2
BRANCH   1   6
ATOM      6  C   PHE A   1      -1.641  -2.874  -2.527  0.00  0.00    +0.031 C 
ATOM      7  O   PHE A   1      -2.068  -1.792  -2.149  0.00  0.00    -0.568 OA
ATOM      8  OXT PHE A   1      -1.270  -3.688  -1.676  0.00  0.00    -0.568 OA
ENDBRANCH   1   6
BRANCH   1   9
ATOM      9  CB  PHE A   1      -1.189  -1.993  -4.860  0.00  0.00    +0.150 C 
BRANCH   9  10
ATOM     10  CG  PHE A   1       0.238  -1.998  -5.381  0.00  0.00    -0.068 A 
ATOM     11  CD1 PHE A   1       1.279  -2.570  -4.620  0.00  0.00    +0.002 A 
ATOM     12  CD2 PHE A   1       0.545  -1.469  -6.621  0.00  0.00    +0.002 A 
ATOM     13  CE1 PHE A   1       2.588  -2.586  -5.097  0.00  0.00    -0.006 A 
ATOM     14  CE2 PHE A   1       1.864  -1.479  -7.098  0.00  0.00    -0.006 A 
ATOM     15  CZ  PHE A   1       2.886  -2.034  -6.336  0.00  0.00    -0.012 A 
ENDBRANCH   9  10
ENDBRANCH   1   9
TORSDOF 4
ENDMDL
MODEL 6
REMARK VINA RESULT:      -3.9      1.541      2.419
REMARK  Name = 4jpy_ligand
REMARK  4 active torsions:
REMARK  status: ('A' for Active; 'I' for Inactive)
REMARK    1  A    between atoms: N_1  and  CA_2
REMARK    2  A    between atoms: CA_2  and  C_3
REMARK    3  A    between atoms: CA_2  and  CB_5
REMARK    4  A    between atoms: CB_5  and  CG_6
REMARK                            x       y       z     vdW  Elec       q    Type
REMARK                         _______ _______ _______ _____ _____    ______ ____
ROOT
ATOM      1  CA  PHE A   1      -2.726  -3.491  -3.519  0.00  0.00    +0.155 C 
ENDROOT
BRANCH   1   2
ATOM      2  N   PHE A   1      -4.116  -3.852  -3.928  0.00  0.00    +0.445 N 
ATOM      3  H1  PHE A   1      -4.294  -4.817  -3.699  0.00  0.00    +0.147 HD
ATOM      4  H2  PHE A   1      -4.218  -3.719  -4.922  0.00  0.00    +0.147 HD
ATOM      5  H3  PHE A   1      -4.773  -3.263  -3.442  0.00  0.00    +0.147 HD
ENDBRANCH   1   2
BRANCH   1   6
ATOM      6  C   PHE A   1      -2.666  -2.045  -3.050  0.00  0.00    +0.031 C 
ATOM      7  O   PHE A   1      -3.114  -1.127  -3.725  0.00  0.00    -0.568 OA
ATOM      8  OXT PHE A   1      -2.136  -1.772  -1.968  0.00  0.00    -0.568 OA
ENDBRANCH   1   6
BRANCH   1   9
ATOM      9  CB  PHE A   1      -1.727  -3.765  -4.656  0.00  0.00    +0.150 C 
BRANCH   9  10
ATOM     10  CG  PHE A   1      -0.275  -3.609  -4.238  0.00  0.00    -0.068 A 
ATOM     11  CD1 PHE A   1       0.282  -4.449  -3.251  0.00  0.00    +0.002 A 
ATOM     12  CD2 PHE A   1       0.539  -2.660  -4.830  0.00  0.00    +0.002 A 
ATOM     13  CE1 PHE A   1       1.616  -4.317  -2.869  0.00  0.00    -0.006 A 
ATOM     14  CE2 PHE A   1       1.879  -2.523  -4.441  0.00  0.00    -0.006 A 
ATOM     15  CZ  PHE A   1       2.417  -3.347  -3.459  0.00  0.00    -0.012 A 
ENDBRANCH   9  10
ENDBRANCH   1   9
TORSDOF 4
ENDMDL
MODEL 7
REMARK VINA RESULT:      -3.6      1.881      2.549
REMARK  Name = 4jpy_ligand
REMARK  4 active torsions:
REMARK  status: ('A' for Active; 'I' for Inactive)
REMARK    1  A    between atoms: N_1  and  CA_2
REMARK    2  A    between atoms: CA_2  and  C_3
REMARK    3  A    between atoms: CA_2  and  CB_5
REMARK    4  A    between atoms: CB_5  and  CG_6
REMARK                            x       y       z     vdW  Elec       q    Type
REMARK                         _______ _______ _______ _____ _____    ______ ____
ROOT
ATOM      1  CA  PHE A   1      -3.083  -3.310  -3.628  0.00  0.00    +0.155 C 
ENDROOT
BRANCH   1   2
ATOM      2  N   PHE A   1      -3.224  -3.262  -5.113  0.00  0.00    +0.445 N 
ATOM      3  H1  PHE A   1      -3.055  -2.323  -5.437  0.00  0.00    +0.147 HD
ATOM      4  H2  PHE A   1      -4.157  -3.543  -5.372  0.00  0.00    +0.147 HD
ATOM      5  H3  PHE A   1      -2.556  -3.888  -5.534  0.00  0.00    +0.147 HD
ENDBRANCH   1   2
BRANCH   1   6
ATOM      6  C   PHE A   1      -2.485  -2.011  -3.106  0.00  0.00    +0.031 C 
ATOM      7  O   PHE A   1      -2.002  -1.174  -3.857  0.00  0.00    -0.568 OA
ATOM      8  OXT PHE A   1      -2.461  -1.791  -1.891  0.00  0.00    -0.568 OA
ENDBRANCH   1   6
BRANCH   1   9
ATOM      9  CB  PHE A   1      -2.259  -4.534  -3.191  0.00  0.00    +0.150 C 
BRANCH   9  10
ATOM     10  CG  PHE A   1      -0.781  -4.419  -3.523  0.00  0.00    -0.068 A 
ATOM     11  CD1 PHE A   1      -0.335  -4.521  -4.858  0.00  0.00    +0.002 A 
ATOM     12  CD2 PHE A   1       0.155  -4.188  -2.533  0.00  0.00    +0.002 A 
ATOM     13  CE1 PHE A   1       1.018  -4.407  -5.170  0.00  0.00    -0.006 A 
ATOM     14  CE2 PHE A   1       1.519  -4.081  -2.846  0.00  0.00    -0.006 A 
ATOM     15  CZ  PHE A   1       1.951  -4.194  -4.163  0.00  0.00    -0.012 A 
ENDBRANCH   9  10
ENDBRANCH   1   9
TORSDOF 4
ENDMDL
MODEL 8
REMARK VINA RESULT:      -3.6      9.811     11.438
REMARK  Name = 4jpy_ligand
REMARK  4 active torsions:
REMARK  status: ('A' for Active; 'I' for Inactive)
REMARK    1  A    between atoms: N_1  and  CA_2
REMARK    2  A    between atoms: CA_2  and  C_3
REMARK    3  A    between atoms: CA_2  and  CB_5
REMARK    4  A    between atoms: CB_5  and  CG_6
REMARK                            x       y       z     vdW  Elec       q    Type
REMARK                         _______ _______ _______ _____ _____    ______ ____
ROOT
ATOM      1  CA  PHE A   1      -3.080   2.368   4.191  0.00  0.00    +0.155 C 
ENDROOT
BRANCH   1   2
ATOM      2  N   PHE A   1      -3.277   3.125   2.919  0.00  0.00    +0.445 N 
ATOM      3  H1  PHE A   1      -3.557   2.489   2.189  0.00  0.00    +0.147 HD
ATOM      4  H2  PHE A   1      -2.413   3.575   2.659  0.00  0.00    +0.147 HD
ATOM      5  H3  PHE A   1      -3.992   3.823   3.051  0.00  0.00    +0.147 HD
ENDBRANCH   1   2
BRANCH   1   6
ATOM      6  C   PHE A   1      -1.643   2.497   4.672  0.00  0.00    +0.031 C 
ATOM      7  O   PHE A   1      -1.292   3.395   5.426  0.00  0.00    -0.568 OA
ATOM      8  OXT PHE A   1      -0.791   1.692   4.284  0.00  0.00    -0.568 OA
ENDBRANCH   1   6
BRANCH   1   9
ATOM      9  CB  PHE A   1      -3.498   0.896   4.026  0.00  0.00    +0.150 C 
BRANCH   9  10
ATOM     10  CG  PHE A   1      -4.317   0.365   5.190  0.00  0.00    -0.068 A 
ATOM     11  CD1 PHE A   1      -3.792   0.370   6.500  0.00  0.00    +0.002 A 
ATOM     12  CD2 PHE A   1      -5.602  -0.109   4.999  0.00  0.00    +0.002 A 
ATOM     13  CE1 PHE A   1      -4.542  -0.107   7.573  0.00  0.00    -0.006 A 
ATOM     14  CE2 PHE A   1      -6.355  -0.595   6.078  0.00  0.00    -0.006 A 
ATOM     15  CZ  PHE A   1      -5.825  -0.598   7.363  0.00  0.00    -0.012 A 
ENDBRANCH   9  10
ENDBRANCH   1   9
TORSDOF 4
ENDMDL
MODEL 9
REMARK VINA RESULT:      -3.6      4.358      7.655
REMARK  Name = 4jpy_ligand
REMARK  4 active torsions:
REMARK  status: ('A' for Active; 'I' for Inactive)
REMARK    1  A    between atoms: N_1  and  CA_2
REMARK    2  A    between atoms: CA_2  and  C_3
REMARK    3  A    between atoms: CA_2  and  CB_5
REMARK    4  A    between atoms: CB_5  and  CG_6
REMARK                            x       y       z     vdW  Elec       q    Type
REMARK                         _______ _______ _______ _____ _____    ______ ____
ROOT
ATOM      1  CA  PHE A   1      -3.750  -2.525  -2.063  0.00  0.00    +0.155 C 
ENDROOT
BRANCH   1   2
ATOM      2  N   PHE A   1      -3.621  -3.953  -1.644  0.00  0.00    +0.445 N 
ATOM      3  H1  PHE A   1      -3.684  -4.548  -2.455  0.00  0.00    +0.147 HD
ATOM      4  H2  PHE A   1      -4.362  -4.182  -1.000  0.00  0.00    +0.147 HD
ATOM      5  H3  PHE A   1      -2.730  -4.092  -1.193  0.00  0.00    +0.147 HD
ENDBRANCH   1   2
BRANCH   1   6
ATOM      6  C   PHE A   1      -2.421  -2.000  -2.585  0.00  0.00    +0.031 C 
ATOM      7  O   PHE A   1      -1.351  -2.381  -2.129  0.00  0.00    -0.568 OA
ATOM      8  OXT PHE A   1      -2.406  -1.149  -3.480  0.00  0.00    -0.568 OA
ENDBRANCH   1   6
BRANCH   1   9
ATOM      9  CB  PHE A   1      -4.294  -1.660  -0.913  0.00  0.00    +0.150 C 
BRANCH   9  10
ATOM     10  CG  PHE A   1      -5.375  -0.685  -1.347  0.00  0.00    -0.068 A 
ATOM     11  CD1 PHE A   1      -5.859  -0.693  -2.673  0.00  0.00    +0.002 A 
ATOM     12  CD2 PHE A   1      -5.926   0.212  -0.451  0.00  0.00    +0.002 A 
ATOM     13  CE1 PHE A   1      -6.857   0.193  -3.075  0.00  0.00    -0.006 A 
ATOM     14  CE2 PHE A   1      -6.926   1.108  -0.858  0.00  0.00    -0.006 A 
ATOM     15  CZ  PHE A   1      -7.388   1.102  -2.169  0.00  0.00    -0.012 A 
ENDBRANCH   9  10
ENDBRANCH   1   9
TORSDOF 4
ENDMDL
